# LAMMPS data file written by Ovito 3.0.0-dev469
17466 atoms
1 atom types
-50.0 50.0 xlo xhi
-50.0 50.0 ylo yhi
-50.0 50.0 zlo zhi

Atoms  # atomic

1 1 37.07057628 -16.90394254 -33.27152655
2 1 38.99599642 -18.64884571 -31.67751582
3 1 33.21973599 -13.41413619 -36.459548
4 1 35.14515613 -15.15903936 -34.86553728
5 1 35.99922765 -19.48550143 -38.68991799
6 1 37.92464779 -21.2304046 -37.09590727
7 1 31.82583017 -16.34693572 -30.21316397
8 1 33.75125031 -18.09183889 -28.61915324
9 1 34.60532182 -22.41830095 -32.44353396
10 1 36.53074196 -24.16320413 -30.84952323
11 1 39.53583073 -11.38958412 -34.09951914
12 1 41.46125087 -13.1344873 -32.50550841
13 1 42.31532238 -17.46094936 -36.32988913
14 1 44.24074252 -19.20585253 -34.7358784
15 1 38.1419249 -14.32238365 -27.85313511
16 1 40.06734504 -16.06728682 -26.25912438
17 1 40.92141656 -20.39374889 -30.0835051
18 1 42.8468367 -22.13865206 -28.48949437
19 1 37.76752919 -15.43754277 -36.39471857
20 1 39.69294933 -17.18244595 -34.80070784
21 1 36.37362336 -18.3703423 -30.14833453
22 1 38.2990435 -20.11524548 -28.55432381
23 1 35.68083045 -13.86825992 -32.15634155
24 1 37.60625059 -15.61316309 -30.56233083
25 1 38.4603221 -19.93962516 -34.38671154
26 1 40.38574224 -21.68452833 -32.79270082
27 1 33.91252891 -17.91621857 -34.45154098
28 1 35.83794905 -19.66112175 -32.85753025
29 1 40.22862364 -15.8916665 -32.09151212
30 1 42.15404378 -17.63656968 -30.49750139
31 1 32.52278308 -14.88053595 -33.33635599
32 1 34.44820322 -16.62543913 -31.74234526
33 1 35.30227473 -20.95190119 -35.56672598
34 1 37.22769488 -22.69680437 -33.97271525
35 1 38.83887782 -12.85598388 -30.97632712
36 1 40.76429796 -14.60088706 -29.3823164
37 1 41.61836947 -18.92734912 -33.20669711
38 1 43.54378961 -20.6722523 -31.61268639
39 1 34.60948182 -16.44981881 -37.574733
40 1 36.53490196 -18.19472198 -35.98072227
41 1 40.92557656 -14.42526674 -35.21470414
42 1 42.8509967 -16.17016991 -33.62069341
43 1 33.215576 -19.38261834 -31.32834896
44 1 35.14099614 -21.12752151 -29.73433824
45 1 39.53167073 -17.35806627 -28.9683201
46 1 41.45709087 -19.10296944 -27.37430938
47 1 36.37778336 -12.40186015 -35.27953357
48 1 38.3032035 -14.14676333 -33.68552285
49 1 34.98387754 -15.33465968 -29.03314954
50 1 36.90929768 -17.07956286 -27.43913881
51 1 39.15727502 -18.47322539 -37.50990356
52 1 41.08269516 -20.21812857 -35.91589284
53 1 37.76336919 -21.40602492 -31.26351953
54 1 39.68878933 -23.15092809 -29.6695088
55 1 30.06168863 -14.42641222 -37.63956243
56 1 31.98710877 -16.1713154 -36.04555171
57 1 32.84118028 -20.49777746 -39.86993242
58 1 34.76660042 -22.24268064 -38.2759217
59 1 28.6677828 -17.35921175 -31.3931784
60 1 30.59320294 -19.10411492 -29.79916767
61 1 31.44727445 -23.43057699 -33.62354839
62 1 33.3726946 -25.17548016 -32.02953766
63 1 42.6938781 -10.37730809 -32.91950471
64 1 44.61929824 -12.12221126 -31.32549398
65 1 45.47336975 -16.44867332 -35.1498747
66 1 47.39878989 -18.1935765 -33.55586397
67 1 41.29997227 -13.31010761 -26.67312068
68 1 43.22539241 -15.05501079 -25.07910995
69 1 44.07946392 -19.38147285 -28.90349067
70 1 46.00488406 -21.12637603 -27.30947994
71 1 33.91668891 -11.94773643 -39.58274002
72 1 35.84210905 -13.6926396 -37.98872929
73 1 36.69618056 -18.01910166 -41.81311001
74 1 38.6216007 -19.76400484 -40.21909928
75 1 31.12887726 -17.81333548 -27.08997195
76 1 33.0542974 -19.55823865 -25.49596123
77 1 33.90836891 -23.88470072 -29.32034194
78 1 35.83378905 -25.62960389 -27.72633122
79 1 40.23278364 -9.923184357 -37.22271116
80 1 42.15820378 -11.66808753 -35.62870043
81 1 43.0122753 -15.9945496 -39.45308115
82 1 44.93769544 -17.73945277 -37.85907042
83 1 37.44497199 -15.78878341 -24.72994309
84 1 39.37039213 -17.53368659 -23.13593237
85 1 40.22446364 -21.86014865 -26.96031308
86 1 42.14988378 -23.60505182 -25.36630236
87 1 31.82999017 -10.37845357 -35.34436301
88 1 33.75541031 -12.12335674 -33.75035228
91 1 30.43608434 -13.3112531 -29.09797897
92 1 32.36150448 -15.05615627 -27.50396825
93 1 35.99506765 -25.45398357 -33.55871895
95 1 38.1460849 -8.353901502 -32.98433415
96 1 40.07150504 -10.09880468 -31.39032342
97 1 43.70506821 -20.49663198 -37.44507413
99 1 36.75217908 -11.28670103 -26.73795011
100 1 38.67759922 -13.0316042 -25.14393939
101 1 42.31116238 -23.42943151 -31.19869009
102 1 44.23658252 -25.17433468 -29.60467937
103 1 32.52694308 -8.912053806 -38.46755502
104 1 34.45236322 -10.65695698 -36.8735443
107 1 29.73913143 -14.77765286 -25.97478696
108 1 31.66455157 -16.52255604 -24.38077623
109 1 35.29811474 -26.92038334 -30.43552694
111 1 38.84303782 -6.887501738 -36.10752616
112 1 40.76845796 -8.632404912 -34.51351544
113 1 44.40202112 -19.03023221 -40.56826614
115 1 36.05522616 -12.75310079 -23.6147581
116 1 37.9806463 -14.49800397 -22.02074737
117 1 41.61420947 -24.89583127 -28.07549808
118 1 43.53962961 -26.64073444 -26.48148735
119 1 28.6719428 -11.3907296 -36.52437744
120 1 30.59736294 -13.13563278 -34.93036671
123 1 27.27803697 -14.32352913 -30.27799341
124 1 29.20345711 -16.06843231 -28.68398268
125 1 32.83702028 -26.46625961 -34.73873339
127 1 41.30413227 -7.341625467 -31.80431971
128 1 43.22955241 -9.086528642 -30.21030899
129 1 46.86311558 -19.48435594 -36.26505969
131 1 39.91022644 -10.27442499 -25.55793568
132 1 41.83564658 -12.01932817 -23.96392496
133 1 45.46920975 -22.41715547 -30.01867566
134 1 47.39462989 -24.16205865 -28.42466494
135 1 30.75864154 -12.96001246 -40.76275445
136 1 32.68406168 -14.70491563 -39.16874372
137 1 33.53813319 -19.0313777 -42.99312444
138 1 35.46355333 -20.77628087 -41.39911371
139 1 27.97082989 -18.82561151 -28.26998638
140 1 29.89625003 -20.57051469 -26.67597566
141 1 30.75032154 -24.89697675 -30.50035637
142 1 32.67574168 -26.64187993 -28.90634565
143 1 43.39083101 -8.910908323 -36.04269673
144 1 45.31625115 -10.6558115 -34.448686
145 1 46.17032266 -14.98227356 -38.27306672
146 1 48.0957428 -16.72717674 -36.67905599
147 1 40.60301936 -14.77650738 -23.54992866
148 1 42.5284395 -16.52141055 -21.95591793
149 1 43.38251101 -20.84787262 -25.78029865
150 1 45.30793115 -22.59277579 -24.18628792
152 1 31.29431585 -11.66923301 -38.05355873
155 1 26.58108406 -15.78992889 -27.15480139
156 1 28.5065042 -17.53483207 -25.56079066
157 1 32.14006737 -27.93265937 -31.61554137
159 1 42.00108518 -5.875225704 -34.92751173
160 1 43.92650532 -7.620128878 -33.333501
161 1 47.56006849 -18.01795618 -39.38825171
163 1 39.21327353 -11.74082476 -22.43474367
164 1 41.13869367 -13.48572793 -20.84073294
165 1 44.77225684 -23.88355523 -26.89548365
166 1 46.69767698 -25.62845841 -25.30147292
167 1 35.30643473 -14.98341904 -40.69792501
168 1 37.23185487 -16.72832222 -39.10391429
169 1 32.51862308 -20.8490181 -28.20515695
170 1 34.44404322 -22.59392127 -26.61114622
171 1 41.62252947 -12.95886698 -38.33789615
172 1 43.54794961 -14.70377015 -36.74388543
173 1 38.83471782 -18.82446603 -25.84512809
174 1 40.76013796 -20.56936921 -24.25111736
175 1 38.4644821 -13.97114301 -39.51791058
176 1 40.38990224 -15.71604618 -37.92389986
177 1 35.67667045 -19.83674206 -27.02514252
178 1 37.60209059 -21.58164524 -25.43113179
179 1 34.98803753 -9.366177536 -34.16434858
180 1 36.91345768 -11.11108071 -32.57033785
181 1 40.54702084 -21.50890801 -38.62508856
183 1 33.59413171 -12.29897706 -27.91796454
184 1 35.51955185 -14.04388024 -26.32395382
185 1 39.15311502 -24.44170754 -32.37870452
187 1 34.29108462 -10.8325773 -31.04115656
188 1 36.21650476 -12.57748047 -29.44714583
189 1 39.85006793 -22.97530778 -35.50189654
191 1 29.36473571 -15.89281199 -34.51637042
192 1 31.29015585 -17.63771516 -32.92235969
193 1 41.99692518 -11.84370785 -29.79631269
194 1 43.92234532 -13.58861102 -28.20230197
195 1 32.14422737 -21.96417722 -36.74674041
196 1 34.06964751 -23.7090804 -35.15272968
197 1 44.77641684 -17.91507309 -32.02668268
198 1 46.70183698 -19.65997626 -30.43267196
199 1 30.75448154 -18.92849461 -35.63155541
200 1 32.67990168 -20.67339778 -34.03754469
201 1 43.38667101 -14.87939047 -30.91149769
202 1 45.31209115 -16.62429364 -29.31748696
203 1 31.13303725 -11.84485333 -32.22117099
204 1 33.0584574 -13.58975651 -30.62716026
205 1 36.69202056 -23.98758381 -36.68191097
207 1 37.44913199 -9.820301265 -29.86114213
208 1 39.37455213 -11.56520444 -28.2671314
209 1 43.0081153 -21.96303174 -34.32188211
211 1 27.97498989 -12.85712937 -33.40118542
212 1 29.90041003 -14.60203254 -31.8071747
215 1 40.60717936 -8.808025231 -28.6811277
216 1 42.5325995 -10.55292841 -27.08711697
217 1 46.16616266 -20.95075571 -33.14186768
218 1 48.0915828 -22.69565888 -31.54785695
219 1 31.45143445 -17.46209484 -38.75474743
220 1 33.37685459 -19.20699802 -37.1607367
221 1 44.08362392 -13.41299071 -34.0346897
222 1 46.00904406 -15.15789388 -32.44067898
223 1 30.05752863 -20.39489437 -32.5083634
224 1 31.98294877 -22.13979754 -30.91435267
225 1 42.6897181 -16.34579023 -27.78830567
226 1 44.61513824 -18.09069341 -26.19429495
227 1 32.14838737 -15.99569508 -41.87793944
228 1 34.07380751 -17.74059825 -40.28392872
229 1 44.78057684 -11.94659094 -37.15788172
230 1 46.70599698 -13.69149412 -35.56387099
231 1 29.36057571 -21.86129413 -29.38517138
232 1 31.28599586 -23.60619731 -27.79116065
233 1 41.99276518 -17.81219 -24.66511366
234 1 43.91818532 -19.55709317 -23.07110293
235 1 37.07473627 -10.93546039 -38.40272559
236 1 39.00015642 -12.68036357 -36.80871486
237 1 34.28692462 -16.80105945 -25.90995752
238 1 36.21234476 -18.54596262 -24.3159468
239 1 39.85422793 -17.00682563 -40.63309558
240 1 41.77964807 -18.7517288 -39.03908485
241 1 37.06641628 -22.87242468 -28.14032751
242 1 38.99183642 -24.61732786 -26.54631679
243 1 35.68499045 -7.899777772 -37.28754059
244 1 37.61041059 -9.644680946 -35.69352987
245 1 32.8971788 -13.76537683 -24.79477253
246 1 34.82259894 -15.51028 -23.2007618
247 1 41.24397375 -20.04250825 -41.74828057
249 1 38.4561621 -25.9081073 -29.25551251
250 1 40.38158224 -27.65301048 -27.66150178
251 1 26.90364126 -15.43868826 -38.81957686
252 1 28.8290614 -17.18359143 -37.22556614
253 1 29.68313291 -21.5100535 -41.04994685
254 1 31.60855305 -23.25495667 -39.45593613
255 1 25.50973543 -18.37148778 -32.57319283
256 1 27.43515557 -20.11639096 -30.9791821
257 1 28.28922709 -24.44285302 -34.80356282
258 1 30.21464723 -26.1877562 -33.20955209
259 1 45.85192546 -9.365032053 -31.73949028
260 1 47.7773456 -11.10993523 -30.14547955
261 1 48.63141712 -15.43639729 -33.96986027
262 1 -49.44316274 -17.18130047 -32.37584954
263 1 44.45801964 -12.29783158 -25.49310625
264 1 46.38343978 -14.04273475 -23.89909552
265 1 47.23751129 -18.36919682 -27.72347624
266 1 49.16293143 -20.11409999 -26.12946551
268 1 29.52601431 -15.71719167 -40.34875815
269 1 30.38008583 -20.04365373 -44.17313887
270 1 32.30550597 -21.78855691 -42.57912814
271 1 24.81278252 -19.83788755 -29.45000081
272 1 26.73820266 -21.58279072 -27.85599009
273 1 27.59227417 -25.90925279 -31.6803708
274 1 29.51769431 -27.65415596 -30.08636008
275 1 46.54887838 -7.898632289 -34.8626823
276 1 48.47429852 -9.643535463 -33.26867157
277 1 49.32837003 -13.96999753 -37.09305228
278 1 -48.74620983 -15.7149007 -35.49904156
279 1 43.76106672 -13.76423134 -22.36991423
280 1 45.68648686 -15.50913452 -20.7759035
281 1 46.54055838 -19.83559658 -24.60028422
282 1 48.46597852 -21.58049976 -23.00627349
283 1 25.51389543 -12.40300564 -37.70439187
284 1 27.43931557 -14.14790881 -36.11038114
287 1 24.11998961 -15.33580517 -31.45800784
288 1 26.04540975 -17.08070834 -29.86399711
289 1 29.67897291 -27.47853564 -35.91874782
291 1 44.46217964 -6.329349433 -30.62430528
292 1 46.38759978 -8.074252608 -29.03029456
293 1 -49.97883706 -18.47207991 -35.08504526
294 1 -48.05341692 -20.21698308 -33.49103454
295 1 43.06827381 -9.262148961 -24.37792125
296 1 44.99369395 -11.00705214 -22.78391053
297 1 48.62725712 -21.40487944 -28.83866123
298 1 -49.44732274 -23.14978261 -27.24465051
300 1 28.13626849 -12.68150905 -39.23357316
303 1 23.42303669 -16.80220493 -28.33481582
304 1 25.34845683 -18.5471081 -26.74080509
305 1 28.98202 -28.94493541 -32.7955558
307 1 45.15913255 -4.86294967 -33.7474973
308 1 47.08455269 -6.607852844 -32.15348657
309 1 -49.28188414 -17.00568015 -38.20823728
310 1 -47.356464 -18.75058332 -36.61422655
311 1 42.3713209 -10.72854872 -21.25472924
312 1 44.29674104 -12.4734519 -19.66071851
313 1 47.9303042 -22.8712792 -25.71546922
314 1 49.85572435 -24.61618238 -24.12145849
316 1 36.53906196 -12.22623984 -41.11192131
317 1 37.39313347 -16.5527019 -44.93630202
318 1 39.31855361 -18.29760507 -43.3422913
319 1 30.43192434 -19.27973524 -23.96677994
320 1 32.35734448 -21.02463842 -22.37276921
321 1 33.211416 -25.35110048 -26.19714993
322 1 35.13683614 -27.09600366 -24.6031392
323 1 40.92973655 -8.456784593 -40.34590317
324 1 42.8551567 -10.20168777 -38.75189245
325 1 43.70922821 -14.52814983 -42.57627316
326 1 45.63464835 -16.27305301 -40.98226244
327 1 36.74801908 -17.25518318 -21.60675108
328 1 38.67343922 -19.00008635 -20.01274035
329 1 39.52751073 -23.32654841 -23.83712107
330 1 41.45293087 -25.07145159 -22.24311034
332 1 35.14931613 -9.190557217 -39.99673631
335 1 29.04217852 -16.24405262 -22.85159494
336 1 30.96759866 -17.9889558 -21.25758422
337 1 34.60116182 -28.3867831 -27.31233492
338 1 36.52658196 -30.13168628 -25.7183242
339 1 39.53999073 -5.421101974 -39.23071818
340 1 41.46541087 -7.166005149 -37.63670745
343 1 35.35827325 -14.21950056 -20.49156608
344 1 37.28369339 -15.96440373 -18.89755535
345 1 40.91725656 -26.36223103 -24.95230606
346 1 42.8426767 -28.10713421 -23.35829533
348 1 33.38101459 -13.23851587 -42.29193574
349 1 34.23508611 -17.56497793 -46.11631645
350 1 36.16050625 -19.30988111 -44.52230573
351 1 27.27387697 -20.29201128 -25.14679437
352 1 29.19929712 -22.03691445 -23.55278364
353 1 30.05336863 -26.36337652 -27.37716436
354 1 31.97878877 -28.10827969 -25.78315363
355 1 44.08778392 -7.444508559 -39.16588874
356 1 46.01320406 -9.189411734 -37.57187802
357 1 46.86727558 -13.5158738 -41.39625873
358 1 48.79269572 -15.26077697 -39.80224801
359 1 39.90606644 -16.24290714 -20.42673664
360 1 41.83148658 -17.98781032 -18.83272592
361 1 42.6855581 -22.31427238 -22.65710663
362 1 44.61097824 -24.05917555 -21.06309591
367 1 25.88413115 -17.25632866 -24.03160937
368 1 27.80955129 -19.00123183 -22.43759865
369 1 31.44311446 -29.39905913 -28.49234935
371 1 42.6980381 -4.40882594 -38.05070375
372 1 44.62345824 -6.153729114 -36.45669302
373 1 48.2570214 -16.55155642 -42.51144373
375 1 38.51632062 -13.20722452 -19.31155165
376 1 40.44174076 -14.9521277 -17.71754092
377 1 44.07530392 -25.349955 -23.77229163
378 1 46.00072406 -27.09485817 -22.1782809
379 1 30.44024434 -7.342770951 -34.22917801
380 1 32.36566448 -9.087674125 -32.63516729
383 1 29.04633851 -10.27557048 -27.98279398
384 1 30.97175866 -12.02047365 -26.38878325
387 1 36.75633908 -5.318218882 -31.86914915
388 1 38.68175922 -7.063122057 -30.27513842
391 1 35.36243325 -8.25101841 -25.62276512
392 1 37.28785339 -9.995921584 -24.02875439
395 1 27.28219697 -8.355046985 -35.40919244
396 1 29.20761711 -10.09995016 -33.81518172
399 1 25.88829115 -11.28784651 -29.16280841
400 1 27.81371129 -13.03274969 -27.56879768
403 1 39.91438644 -4.305942848 -30.68913472
404 1 41.83980658 -6.050846023 -29.09512399
407 1 38.52048062 -7.238742376 -24.44275069
408 1 40.44590076 -8.98364555 -22.84873996
412 1 33.06261739 -7.621274361 -35.7583593
415 1 28.3493856 -11.74197024 -24.85960196
416 1 30.27480574 -13.48687342 -23.26559124
419 1 37.45329199 -3.851819119 -34.99234117
420 1 39.37871213 -5.596722293 -33.39833044
423 1 34.66548034 -9.717418173 -22.4995731
424 1 36.59090048 -11.46232135 -20.90556238
428 1 29.90457003 -8.633550395 -36.93837373
430 1 25.19133823 -12.75424628 -26.03961639
431 1 27.11675837 -14.49914945 -24.44560567
434 1 40.61133936 -2.839543085 -33.81232674
435 1 42.5367595 -4.584446259 -32.21831601
438 1 37.8235277 -8.705142139 -21.31955867
439 1 39.74894784 -10.45004531 -19.72554794
445 1 27.65243269 -13.20837001 -21.73640995
446 1 29.57785283 -14.95327318 -20.14239922
450 1 40.07566504 -4.130322529 -36.52152246
453 1 33.96852742 -11.18381794 -19.37638109
454 1 35.89394756 -12.92872111 -17.78237036
460 1 24.49438532 -14.22064604 -22.91642438
461 1 26.41980546 -15.96554921 -21.32241365
464 1 41.30829227 -1.373143321 -36.93551875
465 1 43.23371241 -3.118046495 -35.34150803
468 1 37.12657479 -10.1715419 -18.19636665
469 1 39.05199493 -11.91644508 -16.60235593
472 1 24.12414961 -9.367323019 -36.58920687
473 1 26.04956975 -11.11222619 -34.99519615
475 1 22.73024378 -12.30012255 -30.34282284
476 1 24.65566392 -14.04502572 -28.74881211
479 1 43.07243381 -3.293666814 -29.50912029
480 1 44.99785395 -5.038569989 -27.91510956
483 1 41.67852798 -6.226466342 -23.26273626
484 1 43.60394812 -7.971369516 -21.66872553
488 1 26.74652266 -9.645826429 -38.11838816
490 1 22.03329087 -13.76652231 -27.21963082
491 1 23.95871101 -15.51142548 -25.6256201
494 1 43.76938672 -1.827267051 -32.63231231
495 1 45.69480686 -3.572170225 -31.03830158
498 1 40.98157507 -7.692866105 -20.13954424
499 1 42.90699521 -9.43776928 -18.54553351
503 1 30.22296723 -14.2507919 -43.47195017
505 1 33.00245888 -20.32215714 -45.70232016
506 1 24.11582961 -21.30428731 -26.3268088
507 1 26.04124975 -23.04919049 -24.73279807
508 1 26.89532126 -27.37565255 -28.55717879
509 1 28.8207414 -29.12055572 -26.96316806
510 1 47.24583129 -6.432232525 -37.98587431
511 1 49.17125143 -8.1771357 -36.39186359
512 1 -49.97467706 -12.50359776 -40.2162443
513 1 -48.04925692 -14.24850094 -38.62223358
514 1 43.06411381 -15.23063111 -19.24672221
515 1 44.98953395 -16.97553428 -17.65271149
516 1 45.84360546 -21.30199635 -21.4770922
517 1 47.76902561 -23.04689952 -19.88308148
522 1 22.72608378 -18.26860469 -25.2116238
523 1 24.65150392 -20.01350787 -23.61761308
524 1 28.28506709 -30.41133517 -29.67236378
526 1 45.85608546 -3.396549906 -36.87068932
527 1 47.7815056 -5.14145308 -35.27667859
528 1 -48.58493123 -15.53928038 -41.3314293
529 1 -46.65951109 -17.28418356 -39.73741857
530 1 41.67436798 -12.19494849 -18.13153722
531 1 43.59978813 -13.93985166 -16.53752649
532 1 47.23335129 -24.33767896 -22.5922772
533 1 49.15877143 -26.08258214 -20.99826647
537 1 21.33633795 -15.23292207 -24.09643881
538 1 23.26175809 -16.97782525 -22.50242808
541 1 44.46633964 -0.360867287 -35.75550432
542 1 46.39175978 -2.105770461 -34.1614936
545 1 40.28462216 -9.159265869 -17.01635222
546 1 42.2100423 -10.90416904 -15.4223415
547 1 48.62309712 -27.37336158 -23.70746219
549 1 36.00338765 -13.51701928 -43.82111703
550 1 37.92880779 -15.26192245 -42.2271063
551 1 31.82167017 -22.31541786 -25.08196493
552 1 33.74709031 -24.06032104 -23.48795421
553 1 42.31948238 -11.49246721 -41.46108817
554 1 44.24490252 -13.23737039 -39.86707744
555 1 38.1377649 -20.29086579 -22.72193607
556 1 40.06318504 -22.03576897 -21.12792534
558 1 34.77076042 -16.27419849 -43.40712073
559 1 28.6636228 -23.3276939 -26.26197936
560 1 30.58904294 -25.07259707 -24.66796864
561 1 45.47752975 -10.48019118 -40.28107374
562 1 47.40294989 -12.22509435 -38.68706301
563 1 41.29581227 -19.27858976 -21.54192164
564 1 43.22123241 -21.02349293 -19.94791091
565 1 39.16143501 -12.50474325 -42.6411026
566 1 41.08685515 -14.24964642 -41.04709187
567 1 34.97971754 -21.30314183 -23.9019505
568 1 36.90513768 -23.048045 -22.30793978
569 1 33.59829171 -6.330494917 -33.04916358
570 1 35.52371185 -8.075398091 -31.45515286
573 1 32.20438588 -9.263294444 -26.80277955
574 1 34.12980602 -11.00819762 -25.20876882
577 1 34.29524462 -4.864095153 -36.1723556
578 1 36.22066476 -6.608998327 -34.57834487
581 1 31.50743297 -10.72969421 -23.67958753
582 1 33.43285311 -12.47459738 -22.08557681
585 1 32.9013388 -7.79689468 -29.92597156
586 1 34.82675894 -9.541797855 -28.33196084
589 1 26.20668835 -16.90508802 -35.69638485
590 1 28.13210849 -18.64999119 -34.10237412
591 1 45.15497255 -10.83143182 -28.61629826
592 1 47.08039269 -12.57633499 -27.02228754
593 1 28.98618 -22.97645326 -37.92675484
594 1 30.91160014 -24.72135643 -36.33274411
595 1 47.9344642 -16.90279705 -30.84666825
596 1 49.85988434 -18.64770023 -29.25265753
597 1 24.81694252 -13.8694054 -34.58119985
598 1 26.74236266 -15.61430858 -32.98718913
599 1 43.76522672 -7.795749197 -27.50111327
600 1 45.69064686 -9.540652371 -25.90710254
603 1 49.32421003 -19.93847967 -31.96185325
604 1 -48.75036983 -21.68338285 -30.36784252
605 1 27.59643417 -19.94077064 -36.81156984
606 1 29.52185431 -21.68567381 -35.21755912
607 1 46.54471838 -13.86711444 -29.73148326
608 1 48.47013852 -15.61201761 -28.13747253
609 1 29.74329143 -8.809170714 -31.105986
610 1 31.66871157 -10.55407389 -29.51197527
613 1 36.05938616 -6.784618646 -28.74595713
614 1 37.9848063 -8.52952182 -27.15194641
617 1 26.58524406 -9.821446748 -32.28600043
618 1 28.5106642 -11.56634992 -30.6919897
621 1 39.21743353 -5.772342612 -27.5659427
622 1 41.14285367 -7.517245786 -25.97193198
625 1 23.42719669 -10.83372278 -33.46601486
626 1 25.35261683 -12.57862596 -31.87200413
629 1 42.3754809 -4.760066578 -26.38592827
630 1 44.30090104 -6.504969752 -24.79191755
633 1 28.29338709 -18.47437088 -39.93476186
634 1 30.21880723 -20.21927405 -38.34075113
635 1 47.24167129 -12.40071467 -32.85467527
636 1 49.16709143 -14.14561785 -31.26066455
637 1 26.89948126 -21.4071704 -33.68837783
638 1 28.8249014 -23.15207358 -32.0943671
639 1 45.84776546 -15.3335142 -26.60829124
640 1 47.7731856 -17.07841737 -25.01428052
641 1 28.99034 -17.00797111 -43.05795387
642 1 30.91576014 -18.75287429 -41.46394315
643 1 47.9386242 -10.93431491 -35.97786729
644 1 49.86404434 -12.67921808 -34.38385656
645 1 26.20252835 -22.87357017 -30.56518581
646 1 28.12794849 -24.61847334 -28.97117508
647 1 45.15081255 -16.79991396 -23.48509923
648 1 47.07623269 -18.54481714 -21.8910885
650 1 31.61271305 -17.28647452 -44.58713516
651 1 48.63557712 -9.467915144 -39.10105931
652 1 -49.43900274 -11.21281832 -37.50704858
653 1 25.50557543 -24.33996993 -27.44199379
654 1 27.43099557 -26.08487311 -25.84798307
655 1 44.45385964 -18.26631373 -20.36190721
656 1 46.37927978 -20.0112169 -18.76789648
657 1 37.77168919 -9.469060627 -41.5259176
658 1 39.69710933 -11.2139638 -39.93190688
659 1 33.58997171 -18.26745921 -22.78676551
660 1 35.51539185 -20.01236238 -21.19275478
661 1 40.55118084 -15.54042587 -43.75628759
662 1 42.47660098 -17.28532904 -42.16227687
663 1 36.36946336 -24.33882445 -25.0171355
664 1 38.2948835 -26.08372762 -23.42312477
666 1 38.3073635 -8.178281183 -38.81672188
667 1 32.20022588 -15.23177659 -21.67158051
668 1 34.12564602 -16.97667976 -20.07756979
671 1 37.75920919 -27.37450707 -26.13232049
672 1 39.68462933 -29.11941024 -24.53830977
674 1 36.91761767 -5.142598564 -37.70153689
675 1 30.81048006 -12.19609397 -20.55639552
676 1 32.7359002 -13.94099715 -18.96238479
681 1 23.74559389 -16.45096429 -39.99959129
682 1 25.67101403 -18.19586747 -38.40558057
683 1 26.52508555 -22.52232953 -42.22996128
684 1 28.45050569 -24.2672327 -40.63595056
685 1 22.35168807 -19.38376382 -33.75320726
686 1 24.27710821 -21.12866699 -32.15919654
687 1 25.13117972 -25.45512906 -35.98357725
688 1 27.05659986 -27.20003223 -34.38956653
689 1 49.00997283 -8.352756018 -30.55947585
690 1 -49.06460703 -10.09765919 -28.96546512
691 1 -48.21053552 -14.42412126 -32.78984584
692 1 -46.28511538 -16.16902443 -31.19583511
693 1 47.616067 -11.28555555 -24.31309182
694 1 49.54148715 -13.03045872 -22.71908109
695 1 -49.60444134 -17.35692078 -26.54346181
696 1 -47.6790212 -19.10182396 -24.94945108
698 1 26.36796695 -16.7294677 -41.52877258
699 1 27.22203846 -21.05592977 -45.3531533
700 1 29.1474586 -22.80083294 -43.75914257
701 1 21.65473515 -20.85016358 -30.63001525
702 1 23.58015529 -22.59506676 -29.03600452
703 1 24.43422681 -26.92152882 -32.86038524
704 1 26.35964695 -28.66643199 -31.26637451
705 1 49.70692574 -6.886356255 -33.68266786
706 1 -48.36765412 -8.631259429 -32.08865714
707 1 -47.5135826 -12.95772149 -35.91303785
708 1 -45.58816246 -14.70262467 -34.31902713
709 1 46.91911409 -12.75195531 -21.1898998
710 1 48.84453423 -14.49685848 -19.59588907
711 1 49.69860575 -18.82332055 -23.42026979
712 1 -48.37597411 -20.56822372 -21.82625906
717 1 20.95778224 -22.31656335 -27.50682323
718 1 22.88320238 -24.06146652 -25.9128125
719 1 23.73727389 -28.38792858 -29.73719322
720 1 25.66269403 -30.13283176 -28.14318249
721 1 -49.59612134 -5.419956491 -36.80585988
722 1 -47.6707012 -7.164859665 -35.21184915
723 1 -46.81662969 -11.49132173 -39.03622987
724 1 -44.89120955 -13.2362249 -37.44221914
725 1 46.22216118 -14.21835507 -18.06670778
726 1 48.14758132 -15.96325825 -16.47269706
727 1 49.00165283 -20.28972031 -20.29707777
728 1 -49.07292703 -22.03462349 -18.70306705
729 1 22.35584807 -13.41528167 -38.8844063
730 1 24.28126821 -15.16018485 -37.29039557
733 1 20.96194224 -16.3480812 -32.63802227
734 1 22.88736238 -18.09298437 -31.04401154
737 1 47.620227 -5.317073399 -29.44429085
738 1 49.54564714 -7.061976574 -27.85028013
739 1 -46.82078969 -17.45980388 -33.90503083
740 1 -44.89536955 -19.20470705 -32.31102011
741 1 46.22632118 -8.249872927 -23.19790682
742 1 48.15174132 -9.994776101 -21.60389609
743 1 -48.21469551 -20.3926034 -27.6586468
744 1 -46.28927537 -22.13750658 -26.06463607
749 1 20.26498933 -17.81448096 -29.51483025
750 1 22.19040947 -19.55938414 -27.92081952
751 1 25.82397263 -29.95721144 -33.97557023
753 1 48.31717992 -3.850673636 -32.56748287
754 1 -49.75739994 -5.59557681 -30.97347214
755 1 -46.12383678 -15.99340411 -37.02822285
756 1 -44.19841664 -17.73830729 -35.43421212
757 1 45.52936826 -9.71627269 -20.0747148
758 1 47.45478841 -11.46117586 -18.48070408
759 1 -48.91164843 -21.85900317 -24.53545478
760 1 -46.98622829 -23.60390634 -22.94144406
765 1 19.56803641 -19.28088073 -26.39163823
766 1 21.49345655 -21.0257839 -24.79762751
767 1 25.12701972 -31.4236112 -30.85237821
769 1 49.01413283 -2.384273872 -35.69067489
770 1 -49.06044703 -4.129177046 -34.09666416
771 1 -45.42688386 -14.52700435 -40.15141487
772 1 -43.50146372 -16.27190752 -38.55740414
773 1 44.83241535 -11.18267245 -16.95152279
774 1 46.75783549 -12.92757563 -15.35751206
775 1 -49.60860134 -23.32540293 -21.41226277
776 1 -47.6831812 -25.0703061 -19.81825204
778 1 22.89152238 -12.12450223 -36.17521058
780 1 19.57219641 -13.31239858 -31.52283727
781 1 21.49761655 -15.05730175 -29.92882655
784 1 46.23048118 -2.28139078 -28.32910586
785 1 48.15590132 -4.026293955 -26.73509513
788 1 44.83657535 -5.214190308 -22.08272183
789 1 46.76199549 -6.959093482 -20.4887111
795 1 18.8752435 -14.77879834 -28.39964526
796 1 20.80066364 -16.52370152 -26.80563453
799 1 46.92743409 -0.8149910166 -31.45229787
800 1 48.85285423 -2.559894191 -29.85828715
803 1 44.13962244 -6.680590071 -18.95952981
804 1 46.06504258 -8.425493246 -17.36551908
805 1 -47.5219026 -24.89468579 -25.65063978
808 1 18.17829059 -16.24519811 -25.27645324
809 1 20.10371073 -17.99010128 -23.68244251
812 1 47.624387 0.6514087471 -34.57548989
813 1 49.54980714 -1.093494427 -32.98147916
816 1 43.44266953 -8.146989835 -15.83633779
817 1 45.36808967 -9.891893009 -14.24232707
818 1 -48.21885551 -26.36108555 -22.52744776
823 1 40.01550653 -16.83120531 -46.46548331
824 1 29.73497143 -20.74613501 -20.84358792
825 1 31.66039157 -22.49103818 -19.24957719
826 1 32.51446308 -26.81750025 -23.07395791
827 1 34.43988322 -28.56240342 -21.47994718
829 1 43.55210961 -8.735288004 -41.87508446
830 1 44.40618112 -13.06175007 -45.69946518
831 1 46.33160126 -14.80665324 -44.10545445
832 1 36.05106616 -18.72158294 -18.48355906
833 1 37.9764863 -20.46648611 -16.88954833
834 1 38.83055782 -24.79294818 -20.71392905
835 1 40.75597796 -26.53785135 -19.11991832
840 1 28.3452256 -17.71045239 -19.72840293
841 1 30.27064574 -19.45535556 -18.1343922
842 1 33.90420891 -29.85318286 -24.18914291
843 1 35.82962905 -31.59808604 -22.59513218
845 1 42.16236378 -5.699605385 -40.75989947
848 1 34.66132034 -15.68590032 -17.36837406
849 1 36.58674048 -17.43080349 -15.77436334
850 1 40.22030364 -27.8286308 -21.82911404
851 1 42.14572378 -29.57353397 -20.23510332
854 1 26.95547978 -14.67476977 -18.61321793
855 1 28.88089992 -16.41967294 -17.0192072
862 1 33.27157451 -12.6502177 -16.25318907
863 1 35.19699465 -14.39512088 -14.65917834
870 1 26.57692406 -21.75841104 -22.02360235
871 1 28.5023442 -23.50331422 -20.42959163
872 1 29.35641572 -27.82977628 -24.25397234
873 1 31.28183586 -29.57467945 -22.65996162
874 1 44.78473684 -5.978108796 -42.28908076
875 1 46.71015698 -7.72301197 -40.69507003
876 1 47.56422849 -12.04947403 -44.51945075
877 1 49.48964863 -13.79437721 -42.92544002
878 1 39.20911353 -17.7093069 -17.30354463
879 1 41.13453367 -19.45421008 -15.7095339
880 1 41.98860518 -23.78067214 -19.53391462
881 1 43.91402533 -25.52557532 -17.93990389
885 1 25.18717824 -18.72272842 -20.90841736
886 1 27.11259838 -20.4676316 -19.31440663
887 1 30.74616154 -30.8654589 -25.36915734
888 1 32.67158168 -32.61036207 -23.77514661
890 1 45.32041115 -4.687329351 -39.57988504
893 1 37.8193677 -14.67362429 -16.18835963
894 1 39.74478784 -16.41852746 -14.59434891
895 1 43.37835101 -26.81635476 -20.64909961
896 1 45.30377115 -28.56125794 -19.05508889
899 1 23.79743241 -15.6870458 -19.79323236
900 1 25.72285255 -17.43194898 -18.19922164
904 1 43.93066532 -1.651646732 -38.46470004
907 1 36.42962188 -11.63794167 -15.07317464
908 1 38.35504202 -13.38284484 -13.47916391
909 1 44.76809684 -29.85203738 -21.76428461
915 1 23.41887669 -22.77068708 -23.20361678
916 1 25.34429684 -24.51559025 -21.60960606
917 1 26.19836835 -28.84205231 -25.43398677
918 1 28.12378849 -30.58695549 -23.83997605
919 1 47.9427842 -4.965832761 -41.10906633
920 1 49.86820434 -6.710735936 -39.5150556
921 1 -49.27772414 -11.037198 -43.33943632
922 1 -47.352304 -12.78210117 -41.74542559
923 1 42.3671609 -16.69703087 -16.1235302
924 1 44.29258104 -18.44193405 -14.52951947
925 1 45.14665255 -22.76839611 -18.35390019
926 1 47.07207269 -24.51329928 -16.75988946
930 1 22.02913087 -19.73500446 -22.08843179
931 1 23.95455101 -21.47990763 -20.49442106
932 1 27.58811417 -31.87773493 -26.54917177
934 1 46.55303838 -1.930150142 -39.99388133
935 1 48.47845852 -3.675053317 -38.39987061